FoamFile
{
    stuff : hello
    dictionary : {}

content